
#(C) 2025 by FIZ Karlsruhe - Leibniz Institute for Information Infrastructure.  All rights reserved.
data_69094-ICSD
_database_code_ICSD 69094
_audit_creation_date 1992-01-20
_audit_update_record 1999-01-19
_chemical_name_common 'Copper oxide'
_chemical_formula_structural 'Cu O'
_chemical_formula_sum 'Cu1 O1'
_chemical_name_structure_type CuO(mS8)
_chemical_name_mineral Tenorite
_exptl_crystal_density_diffrn 6.52
_diffrn_ambient_temperature 11.
_citation_title

;
Low-temperature structures of CuO and AgO and their relationships to those of
MgO and PdO
;
loop_
_citation_id
_citation_journal_full
_citation_year
_citation_journal_volume
_citation_page_first
_citation_page_last
_citation_journal_id_ASTM
primary 'Journal of Solid State Chemistry' 1990 89 184 190 JSSCBI
loop_
_citation_author_citation_id
_citation_author_name
primary 'Brese, N.E.'
primary "O'Keeffe, M."
primary 'Ramakrishna, B.L.'
primary 'von Dreele, R.B.'
_cell_length_a 4.6833(2)
_cell_length_b 3.4208(1)
_cell_length_c 5.1294(2)
_cell_angle_alpha 90.
_cell_angle_beta 99.567(1)
_cell_angle_gamma 90.
_cell_volume 81.03
_cell_formula_units_Z 4
_space_group_name_H-M_alt 'C 1 2/c 1'
_space_group_IT_number 15
loop_
_space_group_symop_id
_space_group_symop_operation_xyz
1 'x, -y, z+1/2'
2 '-x, -y, -z'
3 '-x, y, -z+1/2'
4 'x, y, z'
5 'x+1/2, -y+1/2, z+1/2'
6 '-x+1/2, -y+1/2, -z'
7 '-x+1/2, y+1/2, -z+1/2'
8 'x+1/2, y+1/2, z'
loop_
_atom_type_symbol
_atom_type_oxidation_number
Cu2+ 2
O2- -2
loop_
_atom_site_label
_atom_site_type_symbol
_atom_site_symmetry_multiplicity
_atom_site_Wyckoff_symbol
_atom_site_fract_x
_atom_site_fract_y
_atom_site_fract_z
_atom_site_B_iso_or_equiv
_atom_site_occupancy
Cu1 Cu2+ 4 c 0.25 0.25 0 . 1.
O1 O2- 4 e 0 0.4179(2) 0.25 . 1.
loop_
_atom_site_aniso_label
_atom_site_aniso_type_symbol
_atom_site_aniso_U_11
_atom_site_aniso_U_22
_atom_site_aniso_U_33
_atom_site_aniso_U_12
_atom_site_aniso_U_13
_atom_site_aniso_U_23
Cu1 Cu2+ 0.0017(2) 0.0042(2) 0.0027(2) 0.0011(2) 0.0012(1) 0.0002(2)
O1 O2- 0.0036(3) 0.0056(3) 0.0017(3) 0 0.0016(2) 0
#End of TTdata_69094-ICSD