
#(C) 2025 by FIZ Karlsruhe - Leibniz Institute for Information Infrastructure.  All rights reserved.
data_92266-ICSD
_database_code_ICSD 92266
_audit_creation_date 2023-08-01
_chemical_name_common 'Copper(II) sulfate'
_chemical_formula_structural 'Cu (S O4)'
_chemical_formula_sum 'Cu1 O4 S1'
_chemical_name_structure_type CuSO4
_chemical_name_mineral Chalcocyanite
_exptl_crystal_density_diffrn 3.89
_diffrn_ambient_temperature 325.
_citation_title

;
Thermal expansion of anhydrous copper sulfate minerals determined by single
crystal X-ray diffraction: chalcocyanite CuSO$_4$, dolerophanite Cu$_2$OSO$_4$
and kamchatkite KCu$_3$O(SO$_4$)$_2$Cl
;
loop_
_citation_id
_citation_journal_full
_citation_year
_citation_journal_volume
_citation_page_first
_citation_page_last
_citation_journal_id_ASTM
primary 'Physics and Chemistry of Minerals' 2023 50 '' '' PCMIDU
loop_
_citation_author_citation_id
_citation_author_name
primary 'Nazarchuk, Evgeny V.'
primary 'Siidra, Oleg I.'
primary 'Filatov, Stanislav K.'
primary 'Charkin, Dmitri O.'
primary 'Zhdanova, Lada R.'
_cell_length_a 8.4204(4)
_cell_length_b 6.7125(4)
_cell_length_c 4.8211(3)
_cell_angle_alpha 90
_cell_angle_beta 90
_cell_angle_gamma 90
_cell_volume 272.49
_cell_formula_units_Z 4
_space_group_name_H-M_alt 'P n m a'
_space_group_IT_number 62
loop_
_space_group_symop_id
_space_group_symop_operation_xyz
1 'x+1/2, y, -z+1/2'
2 'x, -y+1/2, z'
3 '-x+1/2, y+1/2, z+1/2'
4 '-x, -y, -z'
5 '-x+1/2, -y, z+1/2'
6 '-x, y+1/2, -z'
7 'x+1/2, -y+1/2, -z+1/2'
8 'x, y, z'
loop_
_atom_type_symbol
_atom_type_oxidation_number
Cu2+ 2
S6+ 6
O2- -2
loop_
_atom_site_label
_atom_site_type_symbol
_atom_site_symmetry_multiplicity
_atom_site_Wyckoff_symbol
_atom_site_fract_x
_atom_site_fract_y
_atom_site_fract_z
_atom_site_U_iso_or_equiv
_atom_site_occupancy
Cu1 Cu2+ 4 a 0. 0. 0. 0.0116(4) 1
S1 S6+ 4 c 0.18335(17) 0.25 0.4520(3) 0.0084(4) 1
O1 O2- 4 c 0.1298(4) 0.25 0.7386(8) 0.0139(10) 1
O2 O2- 4 c 0.3645(5) 0.25 0.4404(8) 0.0116(9) 1
O3 O2- 8 d 0.1322(3) 0.0681(4) 0.3111(6) 0.0134(7) 1
loop_
_atom_site_aniso_label
_atom_site_aniso_type_symbol
_atom_site_aniso_U_11
_atom_site_aniso_U_22
_atom_site_aniso_U_33
_atom_site_aniso_U_12
_atom_site_aniso_U_13
_atom_site_aniso_U_23
Cu1 Cu2+ 0.0112(5) 0.0099(5) 0.0137(6) 0.0021(3) -0.0047(2) -0.0033(2)
S1 S6+ 0.0064(7) 0.0099(8) 0.0088(7) 0. -0.0001(5) 0.
O1 O2- 0.017(2) 0.016(2) 0.009(2) 0. 0.0034(15) 0.
O2 O2- 0.007(2) 0.012(2) 0.015(2) 0. -0.0010(14) 0.
O3 O2- 0.0123(15) 0.0103(16) 0.0176(16) 0.0001(12) -0.0045(11) -0.0008(12)
#End of TTdata_92266-ICSD